150
Config_type=6 Weight=1.0 Lattice="7.871213600 1.442595200 -0.951065600 0.000000000 9.788220000 0.870785600 0.000000000 0.000000000 9.220240000" Energy=-538.631587 Virial="705.49191 -3.07749 -17.16533 -3.07749 709.67225 -6.83700 -17.16533 -6.83700 724.48166" Properties=species:S:1:pos:R:3:force:R:3
O	      2.68724      3.52880      5.37009        14.922014      1.545664      2.269535
O	      1.46880      9.79231      1.32408         2.982728      8.745048     17.679543
O	      5.84809      7.50550      5.99002        -8.639635     -5.868161     15.416023
O	      2.17434      4.78428      7.87517       -19.872970      1.490115     -4.846067
O	      5.06998      6.11076      0.08433       -15.703336      2.902419     -9.406474
O	      3.59896      5.49502      2.09620         3.031444    -12.711525     12.343961
O	      1.25175      5.99139      9.27456         8.982276     18.995899      3.099533
O	      2.62341      7.41737      6.84772       -12.731754     21.613128      6.310557
O	      1.84635      5.75113      5.61303        15.187243     -0.355713     15.925890
O	      0.74573      2.24326      4.72274         3.017076     12.625349      4.544672
O	      4.91891     10.51724      1.27574        -8.967660    -13.575079    -11.888732
O	      4.56229      6.52973      7.29767       -22.375435     -5.788215     -2.258359
O	      7.34880     10.01870      8.92988        19.765846     10.288291     -1.617982
O	      6.42675      7.55322      2.42867         1.242220    -15.773769    -13.275129
O	      6.72253      2.07246      7.17545       -13.336086      8.111334     -6.242990
O	      5.15172      4.27172      1.20477       -13.556500     11.104667      3.216399
O	      5.53313      1.69759      3.75330         5.449146    -18.802659     -5.537817
O	      2.24032      3.89197      2.23712        -1.065331    -27.320190     -9.110318
O	      6.52114      7.66273      0.39332        12.832239     -4.116716     -8.590714
O	      3.49167      8.43181      4.10920       -10.346967      6.077748     21.925506
O	      7.86662      9.88508      5.52936       -13.535116      6.633353     -8.806985
O	      7.22526      4.36003      1.14418        -5.015163     16.352734    -13.932699
O	      3.63885      1.76098      6.35231        -0.096155     -2.896917     17.068359
O	      5.22580     10.15650      7.17825         8.027777     19.234996      3.509875
O	      0.55743      2.04228      8.42417        -4.618790     -1.000544     20.572316
O	      7.26943      5.13914      6.71819        11.406015     -8.995884    -11.750572
O	      1.57875      7.36732      3.51288       -15.775745     -7.175604      7.161198
O	      7.58349      8.60440      7.36042        10.796938     16.081497     -3.804821
O	      7.47849      6.03509      8.62490         6.668054     -0.728840    -14.500602
O	      3.91184      3.12511      3.73774        15.880199     -8.273974     -5.253211
O	      2.92235      8.26455      8.87955         7.353368     -8.369441     21.756451
O	      4.06222      2.72441      0.30298        17.456413     -1.435491     10.063686
O	      2.00121      3.23590      0.04558        17.406557      5.111792     -2.875939
O	      5.08751      4.87113      4.18137        10.235627     11.425940    -11.980866
O	      4.68983      6.77536      3.55709         0.874584     21.590873      2.162968
O	      5.15349      9.32991      5.19255         6.765119    -14.025375     12.387896
O	      0.01707      0.71842      2.02576        -0.610204     21.018402      3.092603
O	      4.94540      8.89930      8.89226        12.534761     -3.668201     -6.745044
O	      1.95594      9.37986      6.24577        -5.469401      1.155163     13.312637
O	      7.20718      2.34978      5.14909         2.273011     19.371720     -9.197924
O	      7.19137      4.95033      3.12668         0.930369     10.095632     -4.116010
O	      7.58144      9.29353      3.50013       -13.207695      1.771795     -6.023708
O	      2.34104      7.11734      1.56597         4.485519      2.104502     17.140539
O	      6.33825     10.67822      2.74039        -2.498511      6.683144    -15.407694
O	      3.28572      9.94123      2.57974        -0.022560     -1.700429     20.903293
O	      4.79243      3.15150      7.51754        -4.642738     13.982272     10.147984
O	      7.60250      6.48936      4.89663         6.087231     21.669263     -3.108583
O	      5.16858      4.81318      6.24075        12.195080      0.387564    -17.937354
O	      1.99061      0.53235      7.33004        -8.987798     -4.425603     23.718070
O	      1.74604      1.01518      3.31332        -5.270410     -0.227366     15.769515
H	      2.09454      3.00423      5.32113       -13.751573    -11.485543     -0.979483
H	      2.37510      4.28055      5.48741        -4.740816     12.189845      2.365990
H	      1.19978      9.03619      1.30790        -5.683903    -15.413609      0.410009
H	      1.55140      9.97207      9.79412         2.199778      5.626291    -20.151896
H	      6.40144      7.12088      5.58313        12.886970     -9.228650     -9.464022
H	      5.76751      8.21477      5.63368        -1.843064     14.646825     -7.268167
H	      2.26042      4.15101      8.39961         1.489536     -9.241526      7.620634
H	      2.84545      5.00265      7.60528        22.144315      7.595711     -9.549881
H	      5.22695      5.41039      0.45234         2.236195    -13.904688      5.695960
H	      5.65624      6.58631      0.34794        10.992994     10.277003      5.018279
H	      3.23203      6.11151      1.78789        -8.993288     15.434632     -7.289234
H	      4.29242      5.34640      1.62823         7.395205     -2.343882     -4.565935
H	      1.54941      5.52942      8.63423         4.580499     -4.298565     -8.195763
H	      0.74072      5.46757      9.55157       -12.761156    -12.588147      8.074179
H	      3.33697      7.16066      6.91883        22.704183     -7.636192      2.191803
H	      2.24752      6.83463      6.49524       -10.663753    -14.804637     -9.328898
H	      1.06320      5.61281      5.67254       -17.138040     -3.321859      2.784392
H	      1.90545      5.86358      4.84698         2.771002      3.845782    -21.042346
H	      0.37203      1.69874      5.21078        -6.494281     -8.696795      9.063510
H	      1.17970      1.76537      4.20891         7.404795     -6.590973     -8.544355
H	      5.59914     10.53677      1.70314        13.479609     -0.543632      8.176405
H	      4.69647      1.51561      0.35496        -4.058336     12.756627     -1.252584
H	      5.15513      6.89521      6.97312        16.211255     10.677611     -9.865343
H	      4.81264      6.34982      8.04870         3.371608     -3.771361     13.815343
H	      6.70671      9.89644      0.09461       -20.182320     -3.700179     13.259748
H	      7.39883      9.40031      8.35164         1.325717     -6.835519     -6.312012
H	      5.76235      7.22600      2.84240        -7.826452     -4.067798      4.257723
H	      6.64496      8.15439      2.82978         7.805009     20.136096     13.438502
H	      6.78390      1.30291      7.39545         1.069775    -14.979838      3.981825
H	      7.35166      2.51394      7.43835        10.943088      7.431050      5.611666
H	      5.90222      4.07615      1.28229        19.009623     -4.206030      1.965566
H	      4.79531      3.53509      1.01843        -5.649089     -8.653772     -2.028281
H	      6.10519      2.08983      4.16076        11.309622      7.523468      7.891701
H	      4.91382      2.16187      3.70212       -16.803676     11.821007     -1.682380
H	      2.74856      4.47048      2.12034        14.123798     14.321329     -4.222273
H	      1.74134      4.26342      2.67473       -17.149053     10.634823     14.380293
H	      5.87610      8.14844      0.26456       -10.137825      7.724520     -2.627697
H	      6.59791      7.62744      1.24159         1.851453     -0.553998      8.839587
H	      3.50661      8.80718      3.42935        -0.164706     10.558511    -17.663893
H	      3.82845      7.72985      3.98398         7.783164    -16.198507     -1.743367
H	      0.77236      8.62817      6.50912        15.477709      4.111940      0.516194
H	      7.68699      9.32987      6.08406        -3.481095    -10.441409     10.584393
H	      7.22120      4.68580      1.94403        -0.184220      4.272551      7.011777
H	      7.56070      3.67609      1.22734        10.087346    -20.383384      1.309540
H	      3.31380      2.05371      5.72020        -8.993193      8.053447    -17.541117
H	      4.28375      1.20376      6.20082         6.075511     -5.469357     -1.539646
H	      5.01655      9.66043      7.76281        -4.046202    -10.316477     12.679725
H	      5.19996      9.76711      6.49659        -0.262224     -8.895151    -16.342624
H	      0.13268      2.52098      7.93469        -8.912584     10.181067     -8.666333
H	      0.98174      1.63586      7.91958        12.193212    -12.045273    -13.081846
H	      6.44596      5.08177      6.59453       -11.198118     -2.003217     -2.910803
H	      7.22675      5.69341      7.29614         0.891601     10.864579     12.024483
H	      2.10313      7.70168      4.03389         8.942329      6.309476      9.521650
H	      1.91131      7.35226      2.78675         6.385011     -0.187542    -14.514309
H	      0.15094      6.55791      8.61009         9.070023    -11.254402      5.696217
H	      6.87088      8.37003      7.20671       -21.585836     -6.976877     -4.865347
H	      7.57167      5.41184     -0.08856         1.646559    -12.641318      9.242864
H	      7.03583      6.58355     -0.19965        -7.820728     10.560852      6.815386
H	      3.46730      3.29538      4.38192        -8.305139      3.314725     12.763661
H	      3.44110      3.30020      3.09931        -8.322047      2.451780    -11.753935
H	      2.91668      7.76465      8.24907        -0.063234    -11.362219    -11.203917
H	      2.57208      8.84540      8.52760       -10.961221     18.833171     -9.296244
H	      3.30105      2.63686      0.31503       -22.290232     -2.784809      1.335328
H	      4.25500      2.87981      8.71820         2.960811      2.577636    -10.055546
H	      1.42101      2.84539      8.90835       -13.216742     -8.950603     -8.280191
H	      1.76364      3.40266      0.79312        -4.150727      3.586608     15.414588
H	      4.72061      4.26790      3.77368        -5.811598     -9.742874     -8.174569
H	      4.95935      4.67935      4.93080        -2.574388     -4.011407     17.956575
H	      5.07136      6.16617      3.92530         8.107198    -10.025696      8.572336
H	      4.30273      6.24099      3.09787        -8.995381     -9.375042     -9.958470
H	      4.44150      9.04541      4.90041       -11.714235     -5.114391     -4.657624
H	      5.30613      9.98916      4.84499         5.218078     20.764282    -10.562267
H	      0.45764      0.43664      1.44005        10.217625     -6.120950    -14.668754
H	      7.47676      1.59818      1.41818       -11.218590    -14.152539      9.109073
H	      4.18501      8.59566      8.86251       -11.690668     -5.496503     -0.340098
H	      4.89285      9.52512      0.21813        -0.572960      9.419125      8.081812
H	      2.44005      8.68032      6.29067         5.487169     -7.601314      0.513613
H	      2.05027      9.72474      5.55155         2.007899      9.172461    -18.042395
H	      7.30974      1.57701      5.04705         3.091374    -18.916072     -3.179098
H	      6.93313      2.35589      5.94803        -3.796462      0.998353      9.318887
H	      7.72391      4.32114      3.45489         3.484860     -3.278220      1.476430
H	      6.46389      4.81794      3.54264        -9.060996     -1.022532      4.425539
H	      0.29505      7.46731      4.06422        11.768033     -7.701074     -8.455709
H	      7.76280      9.36571      4.27747         3.096871      1.488946     15.295802
H	      1.85982      6.60432      1.14183        -8.620370     -9.453094     -5.988065
H	      2.48255      7.56099      0.91853         4.147569     10.739638    -13.060932
H	      5.95605      1.17326      2.52884        -7.176675      5.798356     10.966465
H	      6.79813     10.08128      3.04956         7.719307    -10.134749      4.367284
H	      2.76560      9.89963      1.99208       -13.210472     -1.285200    -13.294643
H	      3.94704     10.16647      2.17837        13.338395      4.118653     -6.600015
H	      5.52985      2.79673      7.48816        12.914556     -5.661739      0.396283
H	      4.37084      2.67973      6.99889        -8.079468     -7.421270     -8.539238
H	      7.50120      6.01783      5.50612        -1.723138    -12.558527     16.723219
H	      7.41117      6.05865      4.25784        -3.940546     -8.998484    -15.165662
H	      5.06032      4.13043      6.60998        -2.519202    -16.260993      8.786554
H	      4.76007      5.36893      6.58952       -11.454832     15.002481      9.084716
H	      2.56791      1.07044      7.26964        13.418918     12.193910     -1.012866
H	      1.83373     10.09452      7.48431        -5.028043     -6.728050    -20.822679
H	      1.12220      0.94185      2.73061        -7.172401     -0.830297     -5.303161
H	      2.38835      1.00820      2.86465        16.915252     -0.281022    -10.460006
150
Config_type=29 Weight=1.0 Lattice="13.854786400 1.814465900 -1.568162700 0.000000000 14.366562600 1.524442400 0.000000000 0.000000000 14.983095400" Energy=-608.009291 Virial="-259.91121 7.18076 12.92016 7.18076 -271.73453 -5.64968 12.92016 -5.64968 -257.89442" Properties=species:S:1:pos:R:3:force:R:3
O	      4.88373      5.27947      9.53046        -5.259324      1.336685     -1.195674
O	      2.36147      0.45946      2.18562        -1.024744     -0.698780     -4.944343
O	     11.08354     11.46414     10.63897        -0.139208      0.620344     -4.952832
O	      4.18050      7.63651     14.36470         1.614659     -1.146757     -0.775585
O	      9.18650      7.34061     -0.30157         4.382586     -2.302132     -1.126818
O	      4.97570      8.53518      4.17189         3.027233      2.397317     -3.253354
O	      1.81276      9.29501      0.87338        -0.655907     -5.064431     -0.681899
O	      5.50041      9.46568     11.70410         1.789765     -0.868037     -4.286148
O	      2.90168      8.67450      8.97124        -2.829136      2.982336     -1.284530
O	      1.73072      3.50153      8.99834        -1.177548     -5.358942     -1.599307
O	      8.53711     13.36182      3.88482         5.338950      0.483073      3.271612
O	      8.68947      8.90035     11.46970         2.577797      1.557675      3.024958
O	     11.20245     14.44039     13.74726         0.684736     -4.172708      0.301310
O	     10.90519     10.67803      5.04304         1.918738      0.726140      4.117507
O	     12.63694      3.09258     12.31935         3.961777     -3.272014      1.935875
O	      8.02782      7.24084      3.20089         0.197151     -4.420703     -3.109441
O	     10.41225      4.14159      6.03766        -2.017690     -1.285122      4.638050
O	      3.61526      5.23676      4.56909        -2.619487      3.139154     -2.449167
O	     11.30395     10.14437      1.67485        -2.576836      3.011579      2.442789
O	      6.29815     13.22449      7.85096         1.073440     -1.973202     -4.203315
O	      0.84629     12.59498     10.83979         2.401585     -1.961005      2.765844
O	     13.65820      6.78661      2.32330        -1.664873     -2.881675      4.565467
O	      6.86319      3.26579     12.04528         0.798939      1.697480     -4.586716
O	      9.43226      1.92010     10.05743         1.852714     -5.240282     -0.996758
O	      2.10475      2.67375     14.14550         0.512054      0.782112     -2.638225
O	      0.02755      5.35644     12.93198        -3.731915     -0.975984      1.442818
O	      2.49256     11.86206      6.49330         3.044490      3.620477     -1.881562
O	     13.74879     12.93829     12.13982        -1.123467     -5.126031      0.279900
O	     13.23583      8.46715     -0.41233        -0.786592      0.224148      5.681984
O	      6.94586      4.86474      6.55439        -6.166840     -0.143338      1.170228
O	      5.74534     11.79546     14.44717        -2.335693      1.288742     -3.573237
O	      7.66187      3.33557      2.30093        -0.180540      0.553331     -4.813734
O	      4.60952      4.52370      1.10822        -3.750566     -1.604356      0.947397
O	      9.46360      8.20702      6.83982         0.360189     -5.688220     -0.608890
O	      6.34084      9.74288      7.36321         1.910332     -2.852840     -4.791404
O	      9.27008     13.97547      8.89082        -0.375952      1.833498     -3.321219
O	      0.02091      1.54461      4.23591        -0.545251     -2.960393     -2.253001
O	      9.13456     12.50127      0.60020        -3.845840     -0.158376      3.636121
O	      4.27158     12.86722     10.82410         3.148807     -3.499172     -2.908390
O	     13.07787      3.07081      8.49131         0.908026     -2.901164      2.443947
O	     13.04301      7.26769      6.08455         1.114714     -6.485818      1.421618
O	     13.00476     13.40346      6.61977         5.314358      0.602423      0.595200
O	      3.46768     11.49823      2.56882         1.454853     -2.315850     -4.690020
O	     10.91003     15.62348      5.16386         2.450352      1.114597      3.617242
O	      5.44777      1.21682      4.16777         0.672225      0.416392     -6.277033
O	      9.41352      4.11412     13.96585         0.675199     -2.670546     -3.819523
O	     13.47839      9.45073      8.86501        -0.049582     -4.703671     -0.104177
O	     10.28544      6.08348      9.54845        -2.961973     -0.965621      2.911471
O	      4.21087      0.78006     12.09517         2.371697      1.516433     -3.540617
O	      2.82297      0.89503      6.57174        -0.584389      1.923234     -5.033011
H	      3.90052      4.50829      9.28319         3.597861      3.457744      1.063450
H	      4.37587      6.43016      9.49275         1.720715     -4.931150     -0.036470
H	      2.25654     13.67612      3.20075         0.424358      4.702561      1.624072
H	      2.20881      1.36405      1.17259         0.521569     -3.728208      3.415264
H	     11.65861     10.75021      9.70105        -2.037281      2.809271      3.237113
H	     10.42852     12.44155     10.03192         2.409276     -3.598823      1.661575
H	      4.58449      6.54098     14.91954        -1.095849      4.073207     -2.656978
H	      4.67245      8.17295     13.34807        -1.232631     -2.677851      3.833728
H	      9.25468      5.97984     14.42258         0.393688      3.833162      0.455358
H	     10.36783      7.76869     -0.35340        -4.701505     -2.222493      0.336114
H	      4.64433      9.56856      3.51579         1.476641     -3.986440      2.285499
H	      6.18156      8.19920      3.75181        -4.157446      1.294881      1.074804
H	      2.66973      8.43830     15.21484        -2.065927      2.446339      1.753319
H	      0.92860      8.47968      1.30311         3.372309      2.736784     -1.746892
H	      6.87152      9.48179     11.48483        -3.694265     -0.594404      0.487524
H	      4.97276      9.12989     10.64250         2.355004      1.386537      4.174865
H	      1.77420      8.67836      9.44836         4.391375      0.427251     -2.360135
H	      3.08570      9.57141      8.07238        -1.470821     -3.533585      3.905128
H	      0.88011      2.71350      9.57757         3.066111      2.558433     -2.281838
H	      2.26105      2.71735      8.11800        -2.302899      2.684758      3.405971
H	      9.38725     12.48990      4.30601        -3.238690      3.379061     -1.411155
H	      9.06227     14.46518      4.49930        -1.414739     -4.120241     -2.249926
H	      9.51271      9.91277     11.30741        -2.742876     -3.668922      0.956870
H	      8.85709      8.36229     12.59754        -0.315923      2.329540     -3.837990
H	     10.48705     13.66431     14.45627         2.781059      2.544162     -2.749490
H	     12.27591     13.73450     13.17595        -3.262164      1.666665      1.754212
H	     10.59848      9.83386      6.03376         1.237518      2.978770     -3.498769
H	     11.72626     11.53543      5.43701        -3.345887     -3.813260     -0.943393
H	     12.63640      1.84078     12.29962         0.018537      4.918076      0.415018
H	     13.76174      3.43306     12.88472        -4.296997     -1.682863     -2.442804
H	      8.43491      7.23898      1.93828        -1.506677     -0.255621      4.584589
H	      7.81296      6.04750      3.45774         1.012566      4.871721     -1.561621
H	     11.02127      3.62652      7.04611        -2.776077      2.075422     -3.777165
H	      9.14947      4.32177      6.37340         4.827080     -0.935023     -0.899947
H	      4.03872      6.51958      4.31356        -2.081689     -4.192577      0.716516
H	      2.33086      5.04648      4.24252         4.738542      1.449053      1.194673
H	     10.35432     10.96652      1.22094         3.143209     -2.484033      1.814697
H	     11.38237     10.31484      2.96820        -0.636594     -0.473050     -4.753833
H	      6.17558     13.88374      6.68350         0.349999     -2.158686      3.907341
H	      6.50751     11.93161      7.55672        -0.846356      4.274218      0.616039
H	      2.16329     12.56513     10.69779        -4.411377     -0.035176      0.888576
H	      0.48576     11.94769     11.93301         1.775383      2.048048     -3.440153
H	     13.11589      7.22716      3.44601         2.185943     -1.968171     -4.291450
H	     13.62784      5.49606      2.49453        -0.012931      4.469049     -0.518357
H	      6.27853      4.27045     11.49336         2.596699     -4.129915      1.726680
H	      7.66142      2.69984     11.13107        -2.623187      2.080508      2.730999
H	     10.06818     15.46372     12.37729        -2.036144      2.575170     -2.621301
H	      9.39593     15.54416     10.48556        -0.027767      2.374222      4.067637
H	      1.47204      3.77420     13.70161         2.396623     -4.020755      0.718300
H	      2.82839      1.94079     13.38169        -2.927440      3.206287      1.910619
H	     13.02233      6.40272     10.79611         2.980391      3.302313      2.905435
H	     13.47494      7.69712     12.52979         0.841184     -2.150906     -3.981523
H	      2.67725     13.02870      7.02368        -0.322969     -4.390067     -2.422176
H	      3.19714     11.77777      5.41062        -2.864041      0.852891      4.549673
H	      0.69740     10.26337     14.38594        -2.568847      2.616507     -1.856486
H	     12.84727     12.15553     11.64059         3.027781      2.638001      1.626931
H	     13.62856      7.67961      0.57276        -1.781367      2.801818     -3.099042
H	     12.45500      9.32228      0.35118         2.180531     -2.713600     -1.859684
H	      6.29580      4.97690      7.71541         2.146343     -0.356462     -4.418372
H	      5.93472      4.71468      5.77210         4.024478      0.598718      3.412324
H	      5.51211     11.01299     13.49443         0.683357      3.634927      3.551537
H	      5.26659     12.91744     14.24063         1.754054     -4.727445      0.134711
H	      6.73728      3.86581      1.59725         3.640675     -2.217146      2.323738
H	      8.57227      2.99955      1.55665        -4.217388      1.629682      2.665540
H	      3.89518      3.78405      0.31764         2.140171      2.765342      3.483379
H	      4.05109      4.69243      2.28350         1.681850     -0.880935     -4.279054
H	      9.01249      7.35578      5.90654         1.999337      3.311141      3.802767
H	     10.02985      7.42115      7.64744        -2.395712      2.741536     -3.175755
H	      7.40535      9.18023      7.21381        -4.097389      2.152985      0.421416
H	      5.75388      9.41653      6.18879         2.302203      1.038888      4.112910
H	      8.02028     13.73161      8.46674         3.413672      0.809981      0.463902
H	     10.00543     14.64857      8.05459        -3.594449     -2.896189      3.027196
H	      0.94193      1.14520      3.45923        -3.689937      0.714547      2.239276
H	     12.77385      2.66058      2.60947         4.618741      2.288731     -0.089540
H	      7.91584     12.13779      0.39337         4.642403      1.523810      0.858422
H	      9.11593     12.96010      1.88689        -0.498540     -1.444665     -3.981328
H	      4.64959     11.65032     11.10365        -1.156500      4.568977     -1.248761
H	      4.90803     13.11313      9.71864        -2.350909     -1.229309      4.103467
H	     13.75220      2.03255      8.19475        -2.601140      3.437163      1.770978
H	     12.66325      3.06306      9.60951         2.124827     -0.616479     -4.383887
H	      0.36461      4.73050      7.89743        -3.811373      2.171067     -0.459186
H	     12.27977      6.23733      6.23587         2.993245      4.151001     -0.572279
H	      0.22480     11.50019      7.43401        -4.036367      0.534328      3.205278
H	     13.51329     13.64476      7.77439        -1.156897     -0.582202     -4.057788
H	      2.81592     10.44770      2.01655         2.012638      3.333707      1.125419
H	      4.37736     11.81005      1.68307        -3.811528     -1.649434      3.250972
H	     10.85931      2.36751      4.34346         0.388662     -4.538083     -2.148803
H	     11.78393     14.74192      5.67538        -2.603449      3.252316     -0.994644
H	      4.85074      0.73501      3.16415         2.328614      2.034292      4.088454
H	      6.27874      1.98768      3.48980        -2.845830     -2.794436      2.344893
H	     10.49810      3.59236     13.55531        -4.401965      2.133952      1.219974
H	      8.45123      3.72624     13.12048         3.126756      1.246439      2.501850
H	     13.73827      8.65383      9.90910        -1.030176      2.224241     -3.947237
H	     13.24559      8.70885      7.81301         0.896548      2.160878      4.175611
H	      9.94863      4.92203      9.73637         0.915333      5.168995     -0.313341
H	      9.67428      6.91339     10.28387         2.063717     -3.844577     -2.666418
H	      5.02888      1.70106     12.11622        -2.958585     -3.770030     -0.780287
H	      4.11014     14.65989     12.44306         0.784306      2.248517      4.545026
H	      1.74054      1.11457      5.93783         4.421494     -0.678271      2.000910
H	      3.76816      1.23273      5.79638        -4.021892     -1.177108      2.675311
150
Config_type=23 Weight=1.0 Lattice="8.070877600 0.703672000 -1.392562400 0.000000000 9.569002400 0.678010400 0.000000000 0.000000000 8.964840800" Energy=-532.605414 Virial="764.10679 -4.06592 -27.61425 -4.06592 716.66200 -26.46219 -27.61425 -26.46219 694.11614" Properties=species:S:1:pos:R:3:force:R:3
O	      2.01295      3.33477      4.54589        16.863579     -2.198184      7.085934
O	      0.89396      9.07666      9.36232        11.427200      2.925422     14.058083
O	      5.95098      7.15017      5.20031        -2.708150      0.751523     26.795637
O	      1.72058      4.81349      7.29697       -12.635733     -0.110775     -8.742615
O	      4.04985      5.62485      7.77230         7.356191     -7.611301    -18.692054
O	      3.03932      5.47585      1.66931       -15.262314    -12.189923     16.719341
O	      0.28908      5.81909      8.38562         4.039046     14.841997      4.812643
O	      2.50366      6.80308      6.03949        -1.453767     10.905953     10.490895
O	      1.33136      5.41407      4.65723        21.587774     -3.558786     -2.383638
O	      0.00068      2.10032      4.46233         3.113086     16.469815     -2.876448
O	      4.34880      9.92633      0.39834       -10.643835    -16.637448      7.529067
O	      4.43236      5.85812      5.76925       -10.322628     -0.568304    -22.337443
O	      6.91050      9.27230      7.77620         4.426618     21.622659      4.438859
O	      5.42243      7.25320      1.60228       -12.793831      1.702893    -22.104416
O	      6.33647      1.60492      6.39143       -17.482853     -2.173448     -7.825812
O	      4.76908      4.23047      0.55076       -14.549944     16.846185      7.843005
O	      5.50629      1.22037      2.40227         2.820509    -14.296294    -14.141893
O	      1.93513      3.54964      1.44935        21.721881    -13.198971     -4.985918
O	      5.91492      7.52111      8.38423        19.044084     -5.371518    -11.383043
O	      3.33957      7.85795      2.81597        -6.085738     -7.699077     24.945764
O	      0.12013      8.90277      5.88336       -22.328236      9.163690     -2.837169
O	      7.73837      4.47110      0.08270        10.747471     15.648913     -9.652109
O	      2.85753      1.60690      5.64666        -8.565077     -3.162143     19.233015
O	      3.91636      9.65326      5.47747        -2.693658      7.231781     -7.751884
O	      0.07088      2.06604      7.84083         1.733348     -6.746857     13.045292
O	      7.06127      4.46435      5.54111        16.196088     -0.489630     -8.135155
O	      1.05796      7.17740      3.29268       -10.994261     -5.180160     10.299766
O	      7.74193      8.28064      6.05750         5.361078     23.385562     -1.362433
O	      6.65720      5.49873      7.59319        -7.844922     -8.073697    -15.684380
O	      3.32570      2.51232      2.87304        11.095675    -11.304327      2.772048
O	      2.50344      7.27040      8.09677        13.845411     12.220449     13.875234
O	      4.02987      2.64141     -0.50394        10.222484     -4.812819     19.819466
O	      1.99583      3.02930      8.35913        12.334739      2.335385     -8.374981
O	      5.02901      3.67076      2.93416         8.509985      2.584663    -13.255895